ITEM: TIMESTEP
0
ITEM: NUMBER OF ATOMS
20
ITEM: BOX BOUNDS pp pp pp
0.0000000000000000e+00 2.5000000000000000e+01
0.0000000000000000e+00 3.0000000000000000e+01
0.0000000000000000e+00 5.0000000000000000e+00
ITEM: ATOMS id type xs ys zs
1 1 0.517469 0.404278 0.5
2 1 0.498659 0.436489 0.5
3 1 0.475454 0.469734 0.5
4 1 0.458972 0.502094 0.5
5 1 0.438999 0.535876 0.5
6 1 0.417631 0.567686 0.5
7 1 0.39705 0.602033 0.5
8 1 0.378837 0.63659 0.5
9 1 0.360772 0.666643 0.5
10 1 0.340777 0.70182 0.5
11 1 0.318585 0.733375 0.5
12 1 0.298957 0.764958 0.5
13 1 0.280448 0.800287 0.5
14 1 0.261175 0.83086 0.5
15 1 0.240431 0.863875 0.5
16 1 0.222077 0.898548 0.5
17 1 0.204037 0.92903 0.5
18 1 0.18251 0.963002 0.5
19 1 0.162614 0.994402 0.5
20 1 0.142413 0.0271773 0.5
ITEM: TIMESTEP
1
ITEM: NUMBER OF ATOMS
20
ITEM: BOX BOUNDS pp pp pp
0.0000000000000000e+00 2.5000000000000000e+01
0.0000000000000000e+00 3.0000000000000000e+01
0.0000000000000000e+00 5.0000000000000000e+00
ITEM: ATOMS id type xs ys zs
1 1 0.517295 0.404244 0.500133
2 1 0.498593 0.436438 0.499928
3 1 0.475486 0.469609 0.500423
4 1 0.458933 0.502006 0.50068
5 1 0.438981 0.535854 0.499557
6 1 0.417549 0.567602 0.500533
7 1 0.396983 0.601971 0.499718
8 1 0.378888 0.636451 0.500702
9 1 0.360851 0.66661 0.499671
10 1 0.340875 0.701873 0.50051
11 1 0.318757 0.733406 0.499878
12 1 0.299003 0.764895 0.500308
13 1 0.280517 0.800345 0.500017
14 1 0.261082 0.830863 0.500127
15 1 0.240517 0.863926 0.500298
16 1 0.222076 0.898584 0.500647
17 1 0.203951 0.928992 0.500703
18 1 0.182494 0.962842 0.499616
19 1 0.162596 0.994409 0.500735
20 1 0.142412 0.027147 0.499861
ITEM: TIMESTEP
2
ITEM: NUMBER OF ATOMS
20
ITEM: BOX BOUNDS pp pp pp
0.0000000000000000e+00 2.5000000000000000e+01
0.0000000000000000e+00 3.0000000000000000e+01
0.0000000000000000e+00 5.0000000000000000e+00
ITEM: ATOMS id type xs ys zs
1 1 0.51704 0.404179 0.499514
2 1 0.498662 0.436197 0.499277
3 1 0.475499 0.469167 0.501455
4 1 0.458719 0.501821 0.502294
5 1 0.438813 0.535832 0.498124
6 1 0.417734 0.567658 0.499711
7 1 0.397037 0.602056 0.498412
8 1 0.378674 0.63643 0.500795
9 1 0.360712 0.666733 0.498148
10 1 0.341072 0.701736 0.500425
11 1 0.319184 0.733325 0.498362
12 1 0.299144 0.764968 0.499236
13 1 0.280849 0.800244 0.500081
14 1 0.260942 0.830725 0.500787
15 1 0.240783 0.863922 0.501863
16 1 0.222133 0.898406 0.502132
17 1 0.203698 0.929147 0.501818
18 1 0.182407 0.962733 0.499487
19 1 0.162836 0.994657 0.502876
20 1 0.14253 0.0271804 0.49975
ITEM: TIMESTEP
3
ITEM: NUMBER OF ATOMS
20
ITEM: BOX BOUNDS pp pp pp
0.0000000000000000e+00 2.5000000000000000e+01
0.0000000000000000e+00 3.0000000000000000e+01
0.0000000000000000e+00 5.0000000000000000e+00
ITEM: ATOMS id type xs ys zs
1 1 0.516468 0.404506 0.498912
2 1 0.498741 0.43583 0.499938
3 1 0.475709 0.468685 0.500915
4 1 0.458496 0.501792 0.503532
5 1 0.438684 0.53567 0.496853
6 1 0.41782 0.567531 0.497515
7 1 0.39687 0.602341 0.498344
8 1 0.378702 0.636379 0.500968
9 1 0.360421 0.667224 0.496045
10 1 0.341043 0.701336 0.499198
11 1 0.319459 0.733218 0.49667
12 1 0.299393 0.765254 0.496981
13 1 0.280891 0.79984 0.499784
14 1 0.260591 0.830643 0.501444
15 1 0.241213 0.863759 0.503186
16 1 0.222269 0.898311 0.504995
17 1 0.203168 0.929327 0.501698
18 1 0.182142 0.962621 0.500475
19 1 0.163251 0.995116 0.50517
20 1 0.142861 0.0269392 0.499426
ITEM: TIMESTEP
4
ITEM: NUMBER OF ATOMS
20
ITEM: BOX BOUNDS pp pp pp
0.0000000000000000e+00 2.5000000000000000e+01
0.0000000000000000e+00 3.0000000000000000e+01
0.0000000000000000e+00 5.0000000000000000e+00
ITEM: ATOMS id type xs ys zs
1 1 0.515798 0.40515 0.498221
2 1 0.49866 0.435441 0.500192
3 1 0.476 0.46823 0.499157
4 1 0.458155 0.501721 0.504276
5 1 0.43862 0.535514 0.495849
6 1 0.418044 0.567668 0.49581
7 1 0.396784 0.602748 0.499027
8 1 0.378804 0.636168 0.502331
9 1 0.360296 0.667709 0.495385
10 1 0.340917 0.700896 0.498051
11 1 0.319921 0.733328 0.494437
12 1 0.299831 0.765467 0.495733
13 1 0.281113 0.799665 0.498001
14 1 0.260536 0.830663 0.503385
15 1 0.241858 0.863472 0.503782
16 1 0.222257 0.897958 0.508394
17 1 0.202829 0.929429 0.502456
18 1 0.181895 0.962487 0.502141
19 1 0.163512 0.99529 0.508097
20 1 0.143119 0.026272 0.500595
ITEM: TIMESTEP
5
ITEM: NUMBER OF ATOMS
20
ITEM: BOX BOUNDS pp pp pp
0.0000000000000000e+00 2.5000000000000000e+01
0.0000000000000000e+00 3.0000000000000000e+01
0.0000000000000000e+00 5.0000000000000000e+00
ITEM: ATOMS id type xs ys zs
1 1 0.515324 0.406091 0.499015
2 1 0.498425 0.435326 0.501057
3 1 0.476391 0.467948 0.499149
4 1 0.457722 0.501883 0.504305
5 1 0.438396 0.535611 0.493979
6 1 0.418465 0.568095 0.49418
7 1 0.396489 0.603249 0.498355
8 1 0.379147 0.636165 0.502275
9 1 0.359882 0.668262 0.493563
10 1 0.340937 0.700466 0.4973
11 1 0.320571 0.733439 0.49133
12 1 0.300213 0.765837 0.49301
13 1 0.28102 0.799263 0.495124
14 1 0.260289 0.830695 0.505239
15 1 0.242607 0.863476 0.505464
16 1 0.222598 0.897789 0.510354
17 1 0.20281 0.929621 0.503134
18 1 0.181571 0.962187 0.503625
19 1 0.16403 0.995301 0.511778
20 1 0.143288 0.0257704 0.502524
ITEM: TIMESTEP
6
ITEM: NUMBER OF ATOMS
20
ITEM: BOX BOUNDS pp pp pp
0.0000000000000000e+00 2.5000000000000000e+01
0.0000000000000000e+00 3.0000000000000000e+01
0.0000000000000000e+00 5.0000000000000000e+00
ITEM: ATOMS id type xs ys zs
1 1 0.514639 0.407109 0.500314
2 1 0.497982 0.435458 0.501831
3 1 0.476887 0.467547 0.499203
4 1 0.457207 0.501868 0.503276
5 1 0.438507 0.535492 0.493339
6 1 0.418482 0.568445 0.49257
7 1 0.396045 0.603679 0.496348
8 1 0.379683 0.636237 0.500957
9 1 0.359442 0.668991 0.49229
10 1 0.340674 0.70032 0.497668
11 1 0.320922 0.73351 0.489821
12 1 0.300672 0.766432 0.489807
13 1 0.281255 0.798614 0.493536
14 1 0.260406 0.830684 0.507952
15 1 0.243242 0.863267 0.507272
16 1 0.222925 0.897368 0.511975
17 1 0.202547 0.929689 0.503217
18 1 0.181192 0.962149 0.506585
19 1 0.164283 0.995261 0.514154
20 1 0.143666 0.0250844 0.503374
ITEM: TIMESTEP
7
ITEM: NUMBER OF ATOMS
20
ITEM: BOX BOUNDS pp pp pp
0.0000000000000000e+00 2.5000000000000000e+01
0.0000000000000000e+00 3.0000000000000000e+01
0.0000000000000000e+00 5.0000000000000000e+00
ITEM: ATOMS id type xs ys zs
1 1 0.513961 0.408236 0.499953
2 1 0.497537 0.435772 0.501471
3 1 0.477637 0.467187 0.498569
4 1 0.456834 0.50176 0.50168
5 1 0.438806 0.535587 0.491338
6 1 0.418612 0.569011 0.492707
7 1 0.395812 0.604055 0.495737
8 1 0.38018 0.636125 0.499414
9 1 0.358871 0.669741 0.492181
10 1 0.340705 0.700473 0.49799
11 1 0.321443 0.733336 0.48692
12 1 0.301353 0.766716 0.486154
13 1 0.281678 0.798285 0.491402
14 1 0.260755 0.830662 0.50977
15 1 0.243689 0.863025 0.508257
16 1 0.223267 0.897085 0.514762
17 1 0.202417 0.929939 0.502858
18 1 0.181087 0.962038 0.510684
19 1 0.164719 0.995127 0.514902
20 1 0.143928 0.0245486 0.502911
ITEM: TIMESTEP
8
ITEM: NUMBER OF ATOMS
20
ITEM: BOX BOUNDS pp pp pp
0.0000000000000000e+00 2.5000000000000000e+01
0.0000000000000000e+00 3.0000000000000000e+01
0.0000000000000000e+00 5.0000000000000000e+00
ITEM: ATOMS id type xs ys zs
1 1 0.513693 0.409165 0.498117
2 1 0.497161 0.436414 0.502317
3 1 0.478189 0.467194 0.498317
4 1 0.456754 0.501367 0.499939
5 1 0.439129 0.535464 0.49055
6 1 0.418964 0.569695 0.493088
7 1 0.395533 0.60406 0.496473
8 1 0.380347 0.636066 0.499496
9 1 0.358337 0.670512 0.493397
10 1 0.340714 0.700611 0.499097
11 1 0.321661 0.733009 0.485008
12 1 0.301748 0.766794 0.484511
13 1 0.282036 0.797956 0.488534
14 1 0.260877 0.830701 0.510398
15 1 0.243851 0.862769 0.510051
16 1 0.223835 0.896644 0.51787
17 1 0.20262 0.929964 0.503736
18 1 0.181232 0.96168 0.515342
19 1 0.164867 0.995209 0.517077
20 1 0.144072 0.024153 0.503679
ITEM: TIMESTEP
9
ITEM: NUMBER OF ATOMS
20
ITEM: BOX BOUNDS pp pp pp
0.0000000000000000e+00 2.5000000000000000e+01
0.0000000000000000e+00 3.0000000000000000e+01
0.0000000000000000e+00 5.0000000000000000e+00
ITEM: ATOMS id type xs ys zs
1 1 0.513861 0.409725 0.49805
2 1 0.496362 0.437434 0.50337
3 1 0.47842 0.46749 0.499143
4 1 0.456841 0.500811 0.496747
5 1 0.439494 0.535208 0.488856
6 1 0.419536 0.570556 0.493711
7 1 0.395562 0.604179 0.497941
8 1 0.380702 0.636139 0.499479
9 1 0.357758 0.670826 0.496012
10 1 0.340745 0.700917 0.500668
11 1 0.321821 0.732574 0.482606
12 1 0.301998 0.76679 0.484521
13 1 0.282329 0.797517 0.486004
14 1 0.261176 0.830591 0.510953
15 1 0.243895 0.862845 0.510367
16 1 0.224355 0.896363 0.520064
17 1 0.202782 0.929758 0.504411
18 1 0.181321 0.961529 0.51854
19 1 0.164902 0.995394 0.518254
20 1 0.144482 0.0237594 0.504276
ITEM: TIMESTEP
10
ITEM: NUMBER OF ATOMS
20
ITEM: BOX BOUNDS pp pp pp
0.0000000000000000e+00 2.5000000000000000e+01
0.0000000000000000e+00 3.0000000000000000e+01
0.0000000000000000e+00 5.0000000000000000e+00
ITEM: ATOMS id type xs ys zs
1 1 0.514252 0.410206 0.498119
2 1 0.495364 0.438602 0.505413
3 1 0.478654 0.467779 0.499248
4 1 0.457101 0.500062 0.493136
5 1 0.439594 0.535054 0.487986
6 1 0.41972 0.571565 0.495227
7 1 0.395623 0.604237 0.499236
8 1 0.380803 0.636207 0.500172
9 1 0.357541 0.670671 0.497576
10 1 0.340577 0.701089 0.501792
11 1 0.321699 0.732039 0.480866
12 1 0.302392 0.766748 0.485367
13 1 0.282544 0.797277 0.483249
14 1 0.261532 0.830436 0.511511
15 1 0.243881 0.862829 0.509377
16 1 0.224855 0.896156 0.521501
17 1 0.202831 0.929539 0.505739
18 1 0.18145 0.961413 0.519806
19 1 0.164865 0.995181 0.518381
20 1 0.14488 0.0235169 0.505266
ITEM: TIMESTEP
11
ITEM: NUMBER OF ATOMS
20
ITEM: BOX BOUNDS pp pp pp
0.0000000000000000e+00 2.5000000000000000e+01
0.0000000000000000e+00 3.0000000000000000e+01
0.0000000000000000e+00 5.0000000000000000e+00
ITEM: ATOMS id type xs ys zs
1 1 0.514276 0.410566 0.497894
2 1 0.494162 0.439459 0.506191
3 1 0.47879 0.468445 0.500539
4 1 0.457472 0.499189 0.488448
5 1 0.439766 0.535131 0.488168
6 1 0.41998 0.572442 0.497632
7 1 0.39611 0.604117 0.500319
8 1 0.38056 0.636623 0.50034
9 1 0.357558 0.670183 0.499967
10 1 0.340221 0.701535 0.503091
11 1 0.3214 0.731636 0.480037
12 1 0.302548 0.766797 0.484486
13 1 0.28282 0.79706 0.481272
14 1 0.261952 0.830187 0.5112
15 1 0.243611 0.862627 0.507488
16 1 0.225573 0.896137 0.522717
17 1 0.202796 0.929471 0.506698
18 1 0.181771 0.961177 0.520815
19 1 0.164624 0.994786 0.518938
20 1 0.145419 0.023223 0.505182
ITEM: TIMESTEP
12
ITEM: NUMBER OF ATOMS
20
ITEM: BOX BOUNDS pp pp pp
0.0000000000000000e+00 2.5000000000000000e+01
0.0000000000000000e+00 3.0000000000000000e+01
0.0000000000000000e+00 5.0000000000000000e+00
ITEM: ATOMS id type xs ys zs
1 1 0.514359 0.41096 0.497849
2 1 0.493202 0.440293 0.508346
3 1 0.478619 0.469346 0.50305
4 1 0.457583 0.498313 0.483486
5 1 0.440105 0.53513 0.489739
6 1 0.420031 0.573363 0.499042
7 1 0.396315 0.604008 0.499758
8 1 0.380271 0.636821 0.501742
9 1 0.357845 0.669752 0.500728
10 1 0.339643 0.701706 0.503488
11 1 0.320889 0.731246 0.479946
12 1 0.302929 0.766835 0.48356
13 1 0.283146 0.796834 0.480996
14 1 0.262136 0.830064 0.509543
15 1 0.243271 0.862354 0.507392
16 1 0.226329 0.896218 0.524527
17 1 0.203096 0.929238 0.507765
18 1 0.181895 0.960715 0.52303
19 1 0.16425 0.994151 0.518551
20 1 0.146204 0.0227173 0.506585
ITEM: TIMESTEP
13
ITEM: NUMBER OF ATOMS
20
ITEM: BOX BOUNDS pp pp pp
0.0000000000000000e+00 2.5000000000000000e+01
0.0000000000000000e+00 3.0000000000000000e+01
0.0000000000000000e+00 5.0000000000000000e+00
ITEM: ATOMS id type xs ys zs
1 1 0.514569 0.411461 0.497409
2 1 0.492483 0.440828 0.509067
3 1 0.478128 0.470228 0.504257
4 1 0.457725 0.497448 0.479387
5 1 0.440618 0.535191 0.490052
6 1 0.42022 0.573824 0.501091
7 1 0.396457 0.604044 0.500864
8 1 0.379858 0.636949 0.502418
9 1 0.358387 0.669214 0.500817
10 1 0.338915 0.701981 0.504758
11 1 0.320589 0.731152 0.48036
12 1 0.303268 0.766605 0.483206
13 1 0.283483 0.796849 0.480114
14 1 0.262508 0.829661 0.509251
15 1 0.242674 0.862112 0.508369
16 1 0.226704 0.896202 0.527519
17 1 0.203128 0.929036 0.510132
18 1 0.181961 0.960451 0.525674
19 1 0.163778 0.993336 0.517854
20 1 0.147094 0.0221056 0.506893
ITEM: TIMESTEP
14
ITEM: NUMBER OF ATOMS
20
ITEM: BOX BOUNDS pp pp pp
0.0000000000000000e+00 2.5000000000000000e+01
0.0000000000000000e+00 3.0000000000000000e+01
0.0000000000000000e+00 5.0000000000000000e+00
ITEM: ATOMS id type xs ys zs
1 1 0.514791 0.41196 0.497885
2 1 0.491996 0.440977 0.510405
3 1 0.477701 0.47085 0.504136
4 1 0.45743 0.497037 0.475681
5 1 0.440772 0.535353 0.490919
6 1 0.42055 0.574256 0.503375
7 1 0.39642 0.604184 0.501387
8 1 0.379389 0.636895 0.502028
9 1 0.358747 0.668772 0.500427
10 1 0.338425 0.702137 0.506763
11 1 0.320444 0.731513 0.481184
12 1 0.30362 0.766035 0.482243
13 1 0.283906 0.79694 0.478244
14 1 0.262888 0.829349 0.510294
15 1 0.241972 0.861705 0.510706
16 1 0.227005 0.895961 0.530675
17 1 0.203376 0.92868 0.512603
18 1 0.18184 0.960297 0.52939
19 1 0.163761 0.992272 0.515867
20 1 0.147991 0.0214064 0.508262
ITEM: TIMESTEP
15
ITEM: NUMBER OF ATOMS
20
ITEM: BOX BOUNDS pp pp pp
0.0000000000000000e+00 2.5000000000000000e+01
0.0000000000000000e+00 3.0000000000000000e+01
0.0000000000000000e+00 5.0000000000000000e+00
ITEM: ATOMS id type xs ys zs
1 1 0.514568 0.412308 0.499227
2 1 0.491473 0.440864 0.512653
3 1 0.477266 0.471246 0.503539
4 1 0.456837 0.497243 0.472493
5 1 0.44111 0.535462 0.491527
6 1 0.420724 0.57428 0.504321
7 1 0.396702 0.604587 0.500793
8 1 0.379218 0.636709 0.501888
9 1 0.358778 0.668239 0.501193
10 1 0.338119 0.702004 0.507543
11 1 0.319989 0.73193 0.481879
12 1 0.304105 0.765478 0.482258
13 1 0.284407 0.79716 0.475688
14 1 0.263244 0.829229 0.512316
15 1 0.241673 0.861448 0.514506
16 1 0.226925 0.895532 0.534606
17 1 0.203616 0.928344 0.514974
18 1 0.181675 0.960242 0.531836
19 1 0.163985 0.991075 0.515784
20 1 0.14886 0.0205309 0.509685
ITEM: TIMESTEP
16
ITEM: NUMBER OF ATOMS
20
ITEM: BOX BOUNDS pp pp pp
0.0000000000000000e+00 2.5000000000000000e+01
0.0000000000000000e+00 3.0000000000000000e+01
0.0000000000000000e+00 5.0000000000000000e+00
ITEM: ATOMS id type xs ys zs
1 1 0.514157 0.412576 0.501976
2 1 0.490974 0.44082 0.513236
3 1 0.476933 0.471313 0.503288
4 1 0.456241 0.497615 0.470118
5 1 0.441635 0.535692 0.492579
6 1 0.421082 0.574268 0.503682
7 1 0.397197 0.604939 0.498702
8 1 0.379186 0.636693 0.502567
9 1 0.358466 0.667652 0.502062
10 1 0.338152 0.701654 0.508301
11 1 0.319711 0.732534 0.484155
12 1 0.304511 0.76507 0.483585
13 1 0.284916 0.797576 0.472103
14 1 0.263734 0.82885 0.512654
15 1 0.241157 0.861236 0.517942
16 1 0.226837 0.895109 0.537215
17 1 0.203793 0.927802 0.518036
18 1 0.181674 0.959911 0.532682
19 1 0.164471 0.990122 0.515772
20 1 0.149863 0.0199675 0.510309
ITEM: TIMESTEP
17
ITEM: NUMBER OF ATOMS
20
ITEM: BOX BOUNDS pp pp pp
0.0000000000000000e+00 2.5000000000000000e+01
0.0000000000000000e+00 3.0000000000000000e+01
0.0000000000000000e+00 5.0000000000000000e+00
ITEM: ATOMS id type xs ys zs
1 1 0.51388 0.41283 0.504791
2 1 0.490625 0.440821 0.514131
3 1 0.476702 0.4714 0.502143
4 1 0.455257 0.498294 0.4686
5 1 0.442049 0.53612 0.495012
6 1 0.42116 0.573973 0.501847
7 1 0.397755 0.605123 0.497113
8 1 0.378971 0.63646 0.504498
9 1 0.358042 0.667385 0.502332
10 1 0.337943 0.701118 0.508802
11 1 0.31928 0.732832 0.487067
12 1 0.304717 0.76496 0.484591
13 1 0.285378 0.797992 0.470713
14 1 0.264002 0.828798 0.512178
15 1 0.240652 0.861108 0.521632
16 1 0.22675 0.895018 0.539856
17 1 0.204003 0.927048 0.52042
18 1 0.181706 0.959338 0.533446
19 1 0.16499 0.989393 0.514903
20 1 0.150939 0.0194046 0.510591
ITEM: TIMESTEP
18
ITEM: NUMBER OF ATOMS
20
ITEM: BOX BOUNDS pp pp pp
0.0000000000000000e+00 2.5000000000000000e+01
0.0000000000000000e+00 3.0000000000000000e+01
0.0000000000000000e+00 5.0000000000000000e+00
ITEM: ATOMS id type xs ys zs
1 1 0.513311 0.413262 0.505872
2 1 0.490163 0.440546 0.514202
3 1 0.476427 0.471463 0.500751
4 1 0.453994 0.499373 0.466577
5 1 0.44236 0.53632 0.496558
6 1 0.421598 0.573736 0.500226
7 1 0.398091 0.605081 0.495522
8 1 0.379059 0.636017 0.507754
9 1 0.357505 0.666976 0.503811
10 1 0.338067 0.70084 0.509317
11 1 0.318944 0.733333 0.490032
12 1 0.305068 0.764742 0.484653
13 1 0.285467 0.798083 0.470755
14 1 0.264158 0.828923 0.511415
15 1 0.240115 0.861084 0.526511
16 1 0.226679 0.8949 0.540569
17 1 0.204514 0.926377 0.52271
18 1 0.181856 0.958433 0.534198
19 1 0.165351 0.988454 0.513591
20 1 0.152054 0.0186641 0.511135
ITEM: TIMESTEP
19
ITEM: NUMBER OF ATOMS
20
ITEM: BOX BOUNDS pp pp pp
0.0000000000000000e+00 2.5000000000000000e+01
0.0000000000000000e+00 3.0000000000000000e+01
0.0000000000000000e+00 5.0000000000000000e+00
ITEM: ATOMS id type xs ys zs
1 1 0.512936 0.413803 0.508485
2 1 0.489471 0.440399 0.515107
3 1 0.475933 0.471324 0.498538
4 1 0.452974 0.500593 0.46659
5 1 0.442424 0.536599 0.497252
6 1 0.421948 0.57348 0.498972
7 1 0.398607 0.604946 0.494279
8 1 0.378833 0.635905 0.511536
9 1 0.357289 0.666814 0.504063
10 1 0.337988 0.700787 0.510997
11 1 0.318606 0.733649 0.493433
12 1 0.305153 0.764655 0.483689
13 1 0.285648 0.79794 0.469667
14 1 0.264229 0.828895 0.510225
15 1 0.239814 0.860847 0.530606
16 1 0.226493 0.894679 0.542056
17 1 0.20499 0.925559 0.523625
18 1 0.182227 0.957286 0.534219
19 1 0.16598 0.987339 0.513338
20 1 0.152944 0.0179773 0.512041
ITEM: TIMESTEP
20
ITEM: NUMBER OF ATOMS
20
ITEM: BOX BOUNDS pp pp pp
0.0000000000000000e+00 2.5000000000000000e+01
0.0000000000000000e+00 3.0000000000000000e+01
0.0000000000000000e+00 5.0000000000000000e+00
ITEM: ATOMS id type xs ys zs
1 1 0.512221 0.414091 0.510013
2 1 0.48862 0.440283 0.516661
3 1 0.475222 0.471244 0.496863
4 1 0.451943 0.501744 0.466364
5 1 0.442358 0.537185 0.496787
6 1 0.422095 0.573268 0.49704
7 1 0.399083 0.604964 0.492357
8 1 0.37842 0.635979 0.516358
9 1 0.357094 0.66672 0.503444
10 1 0.337657 0.700654 0.512892
11 1 0.318147 0.733605 0.495755
12 1 0.305176 0.76468 0.481143
13 1 0.285553 0.797721 0.468751
14 1 0.264422 0.82865 0.510585
15 1 0.239908 0.860635 0.53264
16 1 0.226267 0.894667 0.541906
17 1 0.205609 0.924666 0.523916
18 1 0.182574 0.956117 0.535242
19 1 0.166376 0.986164 0.512095
20 1 0.153568 0.0171922 0.514059
ITEM: TIMESTEP
21
ITEM: NUMBER OF ATOMS
20
ITEM: BOX BOUNDS pp pp pp
0.0000000000000000e+00 2.5000000000000000e+01
0.0000000000000000e+00 3.0000000000000000e+01
0.0000000000000000e+00 5.0000000000000000e+00
ITEM: ATOMS id type xs ys zs
1 1 0.511398 0.414432 0.511644
2 1 0.488183 0.44017 0.518033
3 1 0.474584 0.47138 0.495736
4 1 0.45096 0.502548 0.467039
5 1 0.442187 0.537577 0.495018
6 1 0.422277 0.573137 0.495163
7 1 0.399662 0.604678 0.49167
8 1 0.378208 0.636246 0.518978
9 1 0.357216 0.666466 0.503494
10 1 0.337551 0.700684 0.515189
11 1 0.317757 0.733359 0.497606
12 1 0.304843 0.765035 0.478605
13 1 0.285564 0.797243 0.467985
14 1 0.264838 0.828335 0.509594
15 1 0.239899 0.860352 0.534088
16 1 0.225878 0.894688 0.541068
17 1 0.205929 0.924006 0.525613
18 1 0.182908 0.954951 0.536785
19 1 0.166894 0.984957 0.512368
20 1 0.154349 0.016253 0.516307
ITEM: TIMESTEP
22
ITEM: NUMBER OF ATOMS
20
ITEM: BOX BOUNDS pp pp pp
0.0000000000000000e+00 2.5000000000000000e+01
0.0000000000000000e+00 3.0000000000000000e+01
0.0000000000000000e+00 5.0000000000000000e+00
ITEM: ATOMS id type xs ys zs
1 1 0.51043 0.414531 0.513418
2 1 0.487531 0.440143 0.518204
3 1 0.473737 0.471559 0.493995
4 1 0.450292 0.503021 0.469511
5 1 0.441912 0.538129 0.49357
6 1 0.422767 0.573014 0.49283
7 1 0.400436 0.604615 0.490618
8 1 0.377939 0.636616 0.520752
9 1 0.357367 0.666435 0.502755
10 1 0.337677 0.700863 0.51779
11 1 0.317604 0.732838 0.498119
12 1 0.304162 0.765475 0.476561
13 1 0.285302 0.796885 0.468079
14 1 0.264873 0.828247 0.509507
15 1 0.24029 0.859901 0.535982
16 1 0.225646 0.894583 0.541276
17 1 0.206149 0.923319 0.527514
18 1 0.183289 0.953726 0.538304
19 1 0.167501 0.984097 0.511352
20 1 0.154812 0.015317 0.518393
ITEM: TIMESTEP
23
ITEM: NUMBER OF ATOMS
20
ITEM: BOX BOUNDS pp pp pp
0.0000000000000000e+00 2.5000000000000000e+01
0.0000000000000000e+00 3.0000000000000000e+01
0.0000000000000000e+00 5.0000000000000000e+00
ITEM: ATOMS id type xs ys zs
1 1 0.509604 0.414837 0.5152
2 1 0.486998 0.440398 0.517547
3 1 0.473059 0.471719 0.493267
4 1 0.449959 0.503363 0.472173
5 1 0.441352 0.538465 0.493635
6 1 0.423272 0.572792 0.491027
7 1 0.401436 0.604708 0.491526
8 1 0.37796 0.636831 0.523299
9 1 0.357209 0.666562 0.501415
10 1 0.338018 0.701007 0.521346
11 1 0.317618 0.732465 0.498993
12 1 0.30367 0.765996 0.476074
13 1 0.285188 0.796627 0.468373
14 1 0.265131 0.828142 0.510092
15 1 0.241005 0.859674 0.53668
16 1 0.225162 0.894524 0.542521
17 1 0.206309 0.922951 0.528609
18 1 0.183503 0.952439 0.538289
19 1 0.168026 0.983503 0.51165
20 1 0.155258 0.0144291 0.521301
ITEM: TIMESTEP
24
ITEM: NUMBER OF ATOMS
20
ITEM: BOX BOUNDS pp pp pp
0.0000000000000000e+00 2.5000000000000000e+01
0.0000000000000000e+00 3.0000000000000000e+01
0.0000000000000000e+00 5.0000000000000000e+00
ITEM: ATOMS id type xs ys zs
1 1 0.508744 0.414919 0.516292
2 1 0.486536 0.440813 0.515877
3 1 0.472304 0.472145 0.4928
4 1 0.449577 0.503775 0.475827
5 1 0.440979 0.538702 0.495116
6 1 0.423533 0.572422 0.490983
7 1 0.402408 0.604809 0.491402
8 1 0.378002 0.637005 0.524767
9 1 0.35689 0.666684 0.500761
10 1 0.338109 0.700848 0.524069
11 1 0.317644 0.731874 0.499319
12 1 0.303271 0.766193 0.476593
13 1 0.284732 0.796468 0.469733
14 1 0.265392 0.828218 0.510929
15 1 0.241977 0.859427 0.536412
16 1 0.224611 0.894052 0.543603
17 1 0.206624 0.922986 0.530157
18 1 0.183593 0.951283 0.536875
19 1 0.168522 0.982724 0.512447
20 1 0.155619 0.0136625 0.523728
ITEM: TIMESTEP
25
ITEM: NUMBER OF ATOMS
20
ITEM: BOX BOUNDS pp pp pp
0.0000000000000000e+00 2.5000000000000000e+01
0.0000000000000000e+00 3.0000000000000000e+01
0.0000000000000000e+00 5.0000000000000000e+00
ITEM: ATOMS id type xs ys zs
1 1 0.508193 0.415011 0.515991
2 1 0.485868 0.441422 0.514495
3 1 0.471336 0.472777 0.492964
4 1 0.449515 0.504321 0.477868
5 1 0.440791 0.539176 0.495947
6 1 0.423713 0.572307 0.492406
7 1 0.40343 0.604978 0.491546
8 1 0.378432 0.636876 0.526492
9 1 0.356646 0.666892 0.500674
10 1 0.338 0.70084 0.527681
11 1 0.317672 0.731122 0.498192
12 1 0.302706 0.766287 0.477036
13 1 0.28403 0.796411 0.46971
14 1 0.265272 0.828109 0.512194
15 1 0.242969 0.859118 0.537404
16 1 0.224114 0.893338 0.545548
17 1 0.206717 0.922994 0.530829
18 1 0.183713 0.950225 0.537048
19 1 0.169123 0.98206 0.512832
20 1 0.156037 0.0128918 0.524396
ITEM: TIMESTEP
26
ITEM: NUMBER OF ATOMS
20
ITEM: BOX BOUNDS pp pp pp
0.0000000000000000e+00 2.5000000000000000e+01
0.0000000000000000e+00 3.0000000000000000e+01
0.0000000000000000e+00 5.0000000000000000e+00
ITEM: ATOMS id type xs ys zs
1 1 0.507757 0.415016 0.516401
2 1 0.485517 0.442008 0.513957
3 1 0.470374 0.473459 0.493553
4 1 0.449737 0.504562 0.479992
5 1 0.440678 0.539457 0.497082
6 1 0.423774 0.571992 0.492208
7 1 0.404558 0.605278 0.49072
8 1 0.379189 0.636604 0.528436
9 1 0.356348 0.667055 0.500219
10 1 0.338072 0.700912 0.531683
11 1 0.317785 0.730605 0.496037
12 1 0.302239 0.766 0.47705
13 1 0.283296 0.796552 0.470301
14 1 0.265378 0.82792 0.512265
15 1 0.243772 0.858732 0.539069
16 1 0.224078 0.892791 0.545763
17 1 0.206458 0.923021 0.530394
18 1 0.183617 0.949558 0.536752
19 1 0.169402 0.981657 0.514392
20 1 0.15647 0.0121823 0.524057
ITEM: TIMESTEP
27
ITEM: NUMBER OF ATOMS
20
ITEM: BOX BOUNDS pp pp pp
0.0000000000000000e+00 2.5000000000000000e+01
0.0000000000000000e+00 3.0000000000000000e+01
0.0000000000000000e+00 5.0000000000000000e+00
ITEM: ATOMS id type xs ys zs
1 1 0.507543 0.414846 0.516391
2 1 0.484934 0.442446 0.514429
3 1 0.469789 0.474077 0.49286
4 1 0.450061 0.504967 0.482871
5 1 0.440783 0.539703 0.498022
6 1 0.423682 0.571978 0.493501
7 1 0.405644 0.605374 0.489131
8 1 0.379781 0.636415 0.529548
9 1 0.356034 0.667324 0.500517
10 1 0.33807 0.700671 0.535303
11 1 0.318151 0.730027 0.495362
12 1 0.301782 0.765823 0.478287
13 1 0.282415 0.7965 0.47158
14 1 0.265324 0.827795 0.513227
15 1 0.244226 0.858232 0.541121
16 1 0.223865 0.891937 0.546769
17 1 0.206524 0.923207 0.531434
18 1 0.183198 0.949206 0.537763
19 1 0.1695 0.980997 0.516353
20 1 0.156894 0.0115782 0.523683
ITEM: TIMESTEP
28
ITEM: NUMBER OF ATOMS
20
ITEM: BOX BOUNDS pp pp pp
0.0000000000000000e+00 2.5000000000000000e+01
0.0000000000000000e+00 3.0000000000000000e+01
0.0000000000000000e+00 5.0000000000000000e+00
ITEM: ATOMS id type xs ys zs
1 1 0.507335 0.415019 0.517305
2 1 0.48469 0.442966 0.514404
3 1 0.469149 0.474469 0.49265
4 1 0.450245 0.505181 0.485878
5 1 0.440963 0.540143 0.498754
6 1 0.423587 0.571873 0.494834
7 1 0.406535 0.605293 0.488815
8 1 0.380418 0.636118 0.530774
9 1 0.355582 0.667764 0.501694
10 1 0.338082 0.700637 0.538685
11 1 0.318598 0.729789 0.494168
12 1 0.301402 0.765452 0.480886
13 1 0.281907 0.796335 0.472052
14 1 0.265569 0.827629 0.513962
15 1 0.244864 0.857938 0.541539
16 1 0.223509 0.891261 0.548957
17 1 0.206519 0.923081 0.533983
18 1 0.182782 0.948758 0.538727
19 1 0.169403 0.980419 0.517143
20 1 0.157066 0.0108031 0.522141
ITEM: TIMESTEP
29
ITEM: NUMBER OF ATOMS
20
ITEM: BOX BOUNDS pp pp pp
0.0000000000000000e+00 2.5000000000000000e+01
0.0000000000000000e+00 3.0000000000000000e+01
0.0000000000000000e+00 5.0000000000000000e+00
ITEM: ATOMS id type xs ys zs
1 1 0.507087 0.415236 0.51791
2 1 0.484678 0.443723 0.514757
3 1 0.468519 0.474751 0.492084
4 1 0.450522 0.505308 0.487727
5 1 0.441343 0.540367 0.499545
6 1 0.423262 0.571841 0.496898
7 1 0.407193 0.605257 0.490029
8 1 0.381017 0.635876 0.530181
9 1 0.355457 0.668302 0.50412
10 1 0.338216 0.700615 0.54088
11 1 0.318632 0.729872 0.492153
12 1 0.30124 0.764844 0.483901
13 1 0.281585 0.795942 0.471731
14 1 0.265892 0.827412 0.514719
15 1 0.245385 0.857632 0.542099
16 1 0.223461 0.890608 0.551061
17 1 0.206831 0.922614 0.536485
18 1 0.182653 0.948326 0.538336
19 1 0.169186 0.979857 0.516732
20 1 0.157213 0.0102878 0.522369
ITEM: TIMESTEP
30
ITEM: NUMBER OF ATOMS
20
ITEM: BOX BOUNDS pp pp pp
0.0000000000000000e+00 2.5000000000000000e+01
0.0000000000000000e+00 3.0000000000000000e+01
0.0000000000000000e+00 5.0000000000000000e+00
ITEM: ATOMS id type xs ys zs
1 1 0.506458 0.415765 0.517812
2 1 0.484983 0.44438 0.513477
3 1 0.468027 0.475099 0.492145
4 1 0.450897 0.505747 0.488082
5 1 0.441735 0.540479 0.49862
6 1 0.422973 0.572096 0.498687
7 1 0.407888 0.605498 0.490216
8 1 0.381685 0.635439 0.529821
9 1 0.355708 0.668662 0.507745
10 1 0.338023 0.700578 0.541133
11 1 0.31875 0.730005 0.48967
12 1 0.300893 0.764335 0.487256
13 1 0.281353 0.795798 0.47226
14 1 0.266183 0.827108 0.516837
15 1 0.245522 0.857189 0.541867
16 1 0.223287 0.889754 0.553205
17 1 0.207179 0.921935 0.538875
18 1 0.182831 0.948202 0.53797
19 1 0.169123 0.979203 0.515823
20 1 0.157593 0.00984896 0.522788
ITEM: TIMESTEP
31
ITEM: NUMBER OF ATOMS
20
ITEM: BOX BOUNDS pp pp pp
0.0000000000000000e+00 2.5000000000000000e+01
0.0000000000000000e+00 3.0000000000000000e+01
0.0000000000000000e+00 5.0000000000000000e+00
ITEM: ATOMS id type xs ys zs
1 1 0.505784 0.41608 0.519084
2 1 0.485449 0.44492 0.5107
3 1 0.467441 0.475566 0.490762
4 1 0.450952 0.506329 0.4896
5 1 0.442317 0.540617 0.498639
6 1 0.422584 0.572221 0.499019
7 1 0.408659 0.60565 0.489376
8 1 0.382531 0.63535 0.530076
9 1 0.356297 0.669027 0.512107
10 1 0.337891 0.700545 0.540944
11 1 0.318663 0.730027 0.489173
12 1 0.300307 0.763708 0.489153
13 1 0.281472 0.795816 0.473132
14 1 0.266179 0.826953 0.518417
15 1 0.245564 0.857053 0.540692
16 1 0.22324 0.888849 0.556341
17 1 0.207183 0.920989 0.540809
18 1 0.183161 0.947941 0.537084
19 1 0.169104 0.978426 0.513464
20 1 0.15797 0.00957635 0.523249
ITEM: TIMESTEP
32
ITEM: NUMBER OF ATOMS
20
ITEM: BOX BOUNDS pp pp pp
0.0000000000000000e+00 2.5000000000000000e+01
0.0000000000000000e+00 3.0000000000000000e+01
0.0000000000000000e+00 5.0000000000000000e+00
ITEM: ATOMS id type xs ys zs
1 1 0.505337 0.416443 0.52013
2 1 0.485931 0.44537 0.508411
3 1 0.466926 0.475835 0.489769
4 1 0.450744 0.506961 0.492226
5 1 0.442915 0.540718 0.498719
6 1 0.422429 0.572443 0.499323
7 1 0.409117 0.605578 0.49034
8 1 0.383275 0.635561 0.531098
9 1 0.356969 0.669203 0.516074
10 1 0.337473 0.700289 0.541243
11 1 0.318449 0.730247 0.487911
12 1 0.299609 0.763171 0.49142
13 1 0.281326 0.795865 0.474084
14 1 0.266416 0.826792 0.518826
15 1 0.245738 0.857252 0.540235
16 1 0.223281 0.887872 0.558302
17 1 0.207309 0.91996 0.542902
18 1 0.183456 0.947742 0.535315
19 1 0.169357 0.977863 0.512093
20 1 0.158154 0.00936746 0.52235
ITEM: TIMESTEP
33
ITEM: NUMBER OF ATOMS
20
ITEM: BOX BOUNDS pp pp pp
0.0000000000000000e+00 2.5000000000000000e+01
0.0000000000000000e+00 3.0000000000000000e+01
0.0000000000000000e+00 5.0000000000000000e+00
ITEM: ATOMS id type xs ys zs
1 1 0.505114 0.416718 0.522519
2 1 0.48654 0.445945 0.507098
3 1 0.466223 0.476276 0.487821
4 1 0.450308 0.5073 0.495898
5 1 0.443553 0.540838 0.497275
6 1 0.422446 0.572631 0.500623
7 1 0.409202 0.605777 0.492244
8 1 0.383673 0.63576 0.530955
9 1 0.357692 0.669439 0.520656
10 1 0.33737 0.700197 0.541994
11 1 0.318466 0.730259 0.488186
12 1 0.298842 0.762881 0.49429
13 1 0.281038 0.795606 0.474034
14 1 0.266414 0.826423 0.520705